# vtk DataFile Version 3.0
VTK File Generated by Insight Segmentation and Registration Toolkit (ITK)
ASCII
DATASET STRUCTURED_POINTS
DIMENSIONS 40 40 5
SPACING 1.9480000000000000e+01 1.9480000000000000e+01 1.9480000000000000e+01
ORIGIN 0.0000000000000000e+00 0.0000000000000000e+00 0.0000000000000000e+00
POINT_DATA 8000
SCALARS scalars int 1
LOOKUP_TABLE default
155 156 162 189 209 232 
241 223 241 254 254 254 
254 254 238 230 231 243 
252 236 221 220 199 185 
180 174 172 179 194 202 
193 193 205 240 254 254 
254 254 254 254 254 254 
254 254 254 254 254 254 
254 254 251 253 253 254 
246 243 249 254 253 247 
233 248 254 254 254 239 
237 238 249 254 254 254 
254 254 254 254 254 254 
254 254 254 254 254 254 
248 250 254 254 254 254 
254 254 254 254 254 254 
254 243 247 254 254 249 
253 254 254 254 254 254 
254 254 246 234 229 232 
242 251 251 254 254 253 
248 254 252 246 243 248 
247 246 252 246 241 240 
254 254 254 254 254 254 
254 254 254 254 254 254 
254 254 254 252 254 253 
250 246 246 249 254 245 
239 240 242 252 254 251 
251 254 254 254 244 248 
253 245 247 251 254 254 
251 254 254 254 254 254 
254 254 254 254 254 254 
246 216 188 178 166 143 
129 132 126 124 125 133 
145 156 158 162 175 202 
230 251 239 224 234 254 
254 254 254 254 239 240 
242 254 254 246 231 216 
215 204 203 189 175 186 
193 192 189 199 213 254 
254 254 254 254 254 254 
254 254 254 254 245 254 
254 254 254 252 249 249 
242 251 246 243 239 246 
242 246 240 249 254 254 
253 241 243 247 250 254 
254 254 254 254 254 254 
254 254 254 254 254 251 
243 247 241 240 254 254 
254 254 254 254 254 254 
254 254 254 240 228 246 
254 252 241 249 250 254 
254 254 254 245 243 228 
229 231 245 253 249 253 
251 254 253 254 254 254 
249 242 238 248 253 250 
248 251 254 254 254 254 
254 254 254 254 254 254 
254 254 254 254 254 254 
254 254 254 254 253 254 
254 254 236 227 235 252 
249 252 251 250 254 254 
254 252 247 237 239 237 
239 254 254 254 254 254 
254 254 254 254 254 254 
254 254 249 218 188 177 
161 145 129 122 133 132 
135 141 149 161 173 173 
198 228 254 254 249 239 
242 254 254 254 254 254 
239 243 254 254 254 254 
229 226 227 214 207 206 
193 190 190 194 184 191 
223 254 254 254 254 254 
254 254 254 254 254 254 
252 254 254 254 254 252 
249 240 232 237 250 252 
241 237 239 243 244 242 
251 245 241 241 238 240 
245 249 254 254 254 254 
254 254 254 254 254 254 
254 251 239 251 254 246 
250 254 254 254 254 252 
254 254 254 254 254 238 
235 251 252 245 236 236 
248 254 254 254 254 238 
230 236 228 232 243 254 
249 239 249 251 254 251 
254 254 254 246 234 242 
254 254 250 254 252 254 
254 254 248 254 254 254 
254 254 251 252 254 254 
254 254 254 254 254 250 
246 254 254 254 229 224 
240 248 247 251 249 248 
249 254 254 254 254 239 
232 221 234 254 254 254 
254 254 254 254 254 254 
254 254 254 254 252 222 
200 170 152 147 139 131 
130 146 147 151 153 173 
186 199 224 249 254 254 
252 254 254 254 254 254 
254 254 245 252 254 254 
254 254 227 225 224 215 
225 227 214 206 207 199 
194 196 222 254 254 254 
254 254 254 254 254 254 
254 254 254 254 254 254 
254 250 238 227 236 242 
252 254 245 240 228 243 
244 242 237 230 227 227 
230 234 235 243 254 254 
254 254 254 254 254 254 
254 254 254 254 254 254 
254 251 254 254 254 254 
254 253 254 254 254 254 
253 244 241 245 247 241 
230 240 246 254 254 254 
249 236 227 230 235 229 
243 250 250 233 247 254 
254 254 254 254 254 252 
235 241 249 247 246 252 
254 254 254 254 248 240 
252 254 254 254 254 253 
254 254 254 254 254 254 
254 254 242 253 254 248 
231 227 238 250 250 250 
250 251 249 254 254 254 
252 240 229 227 236 252 
254 254 254 254 254 254 
254 254 254 254 254 254 
247 219 194 170 160 151 
148 144 142 138 146 153 
159 174 201 214 241 254 
254 254 254 254 254 254 
254 254 254 243 243 248 
254 254 254 253 229 217 
229 237 243 254 232 219 
213 198 190 210 235 254 
254 254 254 254 254 254 
254 254 254 254 254 254 
254 254 254 248 234 223 
234 247 252 254 242 225 
232 243 239 240 241 231 
230 230 229 232 242 247 
254 254 254 254 254 254 
254 254 254 254 254 254 
254 247 254 250 254 254 
254 254 254 254 254 254 
254 254 254 250 250 249 
253 241 238 239 243 249 
246 247 240 231 227 235 
239 233 245 254 254 247 
254 254 254 254 249 254 
254 254 247 237 242 246 
240 251 254 254 254 252 
249 245 248 254 254 254 
254 247 254 254 254 254 
254 254 254 253 241 250 
254 249 246 239 243 251 
252 252 253 254 254 254 
254 254 246 240 231 230 
237 249 254 254 254 254 
254 254 254 254 254 254 
254 254 245 222 197 175 
159 159 155 145 138 140 
145 151 154 180 212 234 
252 254 254 254 254 254 
254 254 254 254 243 227 
238 244 254 254 246 233 
231 230 231 246 254 254 
242 219 207 196 199 211 
239 254 254 254 254 254 
254 254 254 254 254 254 
254 254 254 254 243 232 
229 235 247 254 254 251 
243 233 231 241 236 234 
243 242 238 234 233 243 
254 254 254 254 254 254 
254 254 254 254 254 254 
254 254 254 254 249 253 
254 254 254 254 254 254 
254 254 254 254 254 254 
251 254 254 252 242 236 
238 244 240 229 229 234 
241 236 239 236 249 254 
254 254 254 254 254 251 
238 251 254 254 245 235 
235 242 241 239 248 254 
249 250 251 247 249 254 
254 254 254 252 254 254 
254 254 254 254 254 253 
249 254 254 253 253 250 
248 250 244 252 254 254 
254 254 254 249 250 250 
240 238 249 254 254 254 
254 254 254 254 254 254 
254 254 254 254 252 232 
197 162 152 155 148 141 
142 142 145 150 168 199 
231 246 254 254 253 254 
254 254 253 254 254 254 
245 225 235 244 250 248 
241 235 234 222 235 254 
254 254 247 233 220 212 
206 227 247 254 254 254 
254 254 254 254 254 254 
254 254 254 254 254 254 
238 237 228 247 251 254 
254 254 244 234 239 241 
237 234 238 250 248 245 
253 254 254 254 254 254 
254 254 254 254 254 254 
254 254 254 254 254 254 
254 254 254 254 254 254 
254 254 254 243 251 254 
254 254 254 254 254 246 
241 227 239 245 232 233 
226 237 237 236 240 241 
254 253 254 254 254 254 
246 244 235 237 245 247 
247 248 245 240 242 245 
246 250 249 253 254 248 
248 254 254 254 254 247 
246 254 254 254 254 254 
254 254 254 254 254 254 
254 254 254 251 243 246 
254 254 254 254 253 247 
241 253 254 254 254 254 
254 254 254 254 254 254 
254 254 254 254 254 254 
254 233 196 168 152 150 
152 138 138 146 141 146 
177 212 245 250 254 254 
244 227 246 245 254 254 
254 254 254 247 249 249 
254 254 246 236 224 223 
236 254 254 254 246 246 
229 220 215 225 249 254 
254 254 254 254 254 254 
254 254 254 254 254 254 
254 254 250 247 234 242 
254 254 253 254 244 231 
244 246 238 233 243 249 
254 254 254 254 254 254 
254 254 251 254 254 254 
254 254 254 254 254 254 
254 254 254 254 247 254 
254 254 254 254 254 231 
243 254 254 254 254 254 
254 241 237 238 244 245 
237 239 242 244 241 244 
239 243 253 246 249 243 
248 251 247 243 242 245 
242 244 246 248 233 235 
243 237 246 252 254 254 
250 246 254 254 254 254 
254 240 240 254 254 254 
254 254 254 254 254 254 
254 250 237 247 254 251 
239 236 254 254 254 253 
248 254 248 254 254 254 
254 254 254 254 254 254 
254 254 254 254 254 254 
254 254 254 244 204 165 
151 144 138 129 131 144 
144 160 187 212 252 254 
254 247 235 229 244 251 
254 254 254 254 254 254 
254 254 254 254 254 253 
242 229 238 254 254 254 
254 254 254 236 223 225 
244 254 254 254 254 254 
254 254 254 254 254 254 
254 254 254 254 254 254 
251 248 254 254 254 251 
238 225 236 246 246 233 
249 244 254 254 254 254 
254 254 254 249 249 250 
254 254 254 254 254 254 
254 254 254 254 254 254 
249 245 254 254 254 254 
254 245 246 253 254 254 
254 254 254 241 241 242 
237 248 238 245 248 250 
236 237 242 239 252 243 
239 236 242 247 254 241 
245 246 249 247 248 244 
228 225 240 250 251 250 
252 254 254 248 254 254 
254 254 250 241 249 254 
254 254 254 254 254 254 
254 253 252 247 238 250 
254 254 245 249 254 254 
251 252 254 254 254 254 
254 254 254 254 253 244 
253 254 254 254 254 254 
254 254 254 254 254 234 
203 172 150 135 127 127 
128 139 159 168 190 225 
246 254 252 236 239 238 
240 251 254 254 254 254 
254 250 246 254 254 254 
254 251 252 239 247 254 
254 254 254 254 254 241 
228 227 238 244 253 254 
254 254 254 254 254 254 
254 254 254 254 254 251 
254 254 254 247 254 254 
254 238 225 211 233 248 
254 254 254 254 254 254 
254 254 254 254 254 254 
254 254 254 254 252 251 
254 254 254 254 254 254 
254 254 254 251 254 254 
254 254 254 252 250 242 
248 249 250 253 254 249 
249 244 240 233 237 235 
242 249 242 229 236 244 
234 236 241 237 236 246 
253 254 243 245 239 250 
254 243 226 229 239 252 
253 254 254 254 249 248 
254 253 254 254 253 243 
251 254 254 254 254 254 
254 254 254 254 254 254 
254 254 254 254 254 254 
250 254 254 253 246 254 
254 254 251 254 254 254 
253 248 254 254 254 254 
254 254 254 254 254 254 
254 229 198 169 149 129 
123 124 129 146 164 182 
201 226 242 246 242 234 
241 241 254 254 254 254 
254 254 254 246 241 249 
254 254 254 254 246 234 
254 254 254 254 254 254 
254 242 236 240 235 234 
247 254 254 254 254 254 
254 252 254 254 253 252 
249 241 251 254 254 252 
254 252 241 230 209 205 
235 254 254 254 254 254 
254 254 254 254 254 254 
254 254 254 254 254 251 
254 254 254 254 254 254 
254 252 245 254 254 248 
242 254 254 254 254 246 
238 243 246 248 241 242 
254 254 254 244 241 241 
239 236 238 243 242 240 
228 235 238 239 242 238 
227 235 241 245 240 240 
248 254 247 232 236 236 
244 254 254 254 254 249 
247 247 240 242 252 254 
254 254 254 254 254 254 
254 254 254 254 254 254 
254 254 254 254 254 254 
254 254 251 250 254 254 
254 254 252 243 248 249 
253 254 251 254 254 254 
254 254 254 254 254 254 
254 254 250 229 193 166 
145 126 126 126 139 144 
161 191 212 230 231 231 
240 240 242 247 254 254 
254 254 254 254 254 245 
240 248 254 254 251 249 
246 250 254 254 254 254 
254 254 254 251 240 238 
242 240 254 254 254 254 
254 254 254 254 252 254 
254 247 245 241 244 254 
252 254 251 239 230 225 
216 213 236 254 254 254 
254 254 254 254 254 254 
254 254 254 254 254 254 
254 254 254 254 253 251 
254 254 254 239 247 250 
248 249 244 254 254 251 
250 244 238 238 247 241 
233 229 254 254 254 244 
241 243 245 239 232 248 
249 248 243 242 249 249 
250 234 226 230 243 244 
247 241 246 252 251 242 
229 228 238 254 254 254 
254 250 250 248 239 245 
252 250 254 254 254 254 
254 254 254 254 254 254 
251 254 254 254 254 254 
254 254 254 254 252 251 
254 254 254 254 252 242 
244 244 243 244 246 250 
254 254 254 254 254 254 
254 254 254 254 249 230 
193 155 139 139 135 130 
142 148 161 190 218 232 
245 247 245 244 238 248 
254 254 254 254 254 248 
249 249 238 242 254 254 
243 241 251 250 254 254 
254 254 254 254 254 252 
242 235 242 249 254 254 
254 254 254 254 254 254 
252 254 254 253 249 237 
240 243 244 244 238 233 
235 240 232 235 241 254 
254 254 249 253 254 254 
254 254 254 254 254 254 
254 254 254 254 254 246 
243 250 254 254 254 254 
249 247 254 254 249 254 
254 248 250 234 234 219 
227 221 224 224 240 254 
254 241 245 244 242 242 
234 243 254 254 249 254 
254 254 254 247 227 234 
245 254 253 249 249 254 
254 245 227 225 236 251 
254 254 250 254 252 245 
246 241 254 249 254 254 
254 254 254 254 254 254 
254 253 252 250 254 254 
254 254 254 254 254 254 
253 248 254 254 254 254 
246 245 244 248 242 236 
237 250 254 254 254 254 
254 254 254 254 254 254 
253 231 191 145 131 134 
142 150 152 154 169 202 
220 241 254 254 248 251 
238 237 254 254 254 250 
253 253 250 247 239 243 
254 251 237 235 235 254 
254 254 254 254 254 254 
254 246 227 217 222 245 
249 254 243 240 243 254 
254 253 238 239 243 247 
243 229 230 229 226 231 
226 229 243 249 247 237 
241 254 252 253 241 254 
254 254 254 254 254 254 
254 254 254 254 254 254 
254 236 236 241 248 254 
254 254 253 244 254 252 
246 242 234 233 227 216 
207 198 194 203 208 223 
228 239 246 234 226 226 
238 242 239 240 252 254 
254 241 239 253 253 244 
237 236 240 245 253 245 
246 243 248 242 231 234 
239 250 254 254 254 248 
253 244 249 245 246 250 
254 251 254 254 254 254 
254 254 251 254 254 254 
254 254 254 254 254 254 
254 254 239 242 248 254 
254 249 243 246 249 254 
247 247 254 254 254 254 
254 254 254 254 254 254 
253 254 254 233 182 147 
133 142 151 165 167 162 
166 195 227 246 254 254 
250 246 243 243 254 254 
245 240 251 254 254 245 
245 254 254 254 250 233 
233 249 254 254 254 254 
254 254 254 245 221 216 
230 232 230 227 209 220 
234 247 254 243 227 226 
241 252 239 232 229 228 
231 223 227 237 244 240 
241 241 242 248 254 254 
247 247 254 254 254 254 
254 254 254 254 254 254 
254 254 251 238 225 242 
254 252 254 254 249 243 
241 232 219 212 204 195 
184 175 176 165 167 177 
188 202 207 223 229 218 
218 227 241 251 246 243 
252 254 247 237 233 237 
241 241 229 233 241 243 
237 238 240 244 250 243 
243 237 242 242 254 254 
245 252 245 239 251 245 
240 251 253 251 252 254 
254 254 254 247 254 254 
254 254 254 254 254 254 
254 254 254 246 247 241 
248 254 251 250 249 254 
253 254 254 254 254 254 
254 254 254 254 254 254 
254 254 254 254 237 205 
170 139 139 147 152 158 
169 168 169 196 217 239 
254 254 242 231 233 249 
254 254 249 241 251 254 
254 250 254 254 254 254 
254 241 245 254 254 254 
254 254 254 254 254 243 
214 208 231 233 214 194 
190 205 231 254 254 239 
229 223 237 252 242 233 
242 251 241 228 239 244 
245 242 244 246 240 252 
254 254 254 249 254 254 
254 254 254 254 243 254 
254 254 254 254 254 243 
237 249 254 254 254 251 
250 238 221 205 196 187 
167 161 147 149 145 141 
148 153 154 163 170 185 
197 198 209 226 240 254 
241 236 238 249 248 230 
226 234 233 235 234 233 
242 248 233 225 235 249 
253 254 252 247 237 244 
250 254 253 254 250 242 
246 248 252 252 253 254 
254 254 254 254 254 254 
254 254 254 254 254 254 
254 254 254 254 254 254 
254 253 250 254 254 254 
254 254 254 254 254 254 
254 254 249 254 254 254 
249 251 254 254 254 254 
231 197 159 145 143 145 
145 152 169 165 171 187 
217 236 254 254 246 243 
245 254 254 254 253 238 
254 254 254 254 254 254 
254 254 252 248 254 254 
254 254 254 254 254 254 
254 239 217 218 232 220 
198 180 161 189 229 249 
254 241 225 234 239 237 
246 248 253 254 242 234 
244 245 244 243 238 246 
252 254 254 254 254 254 
254 254 254 253 254 254 
254 250 254 254 254 254 
254 241 239 254 247 249 
247 236 239 230 210 183 
175 159 143 122 133 135 
144 122 130 135 128 117 
150 162 168 177 200 215 
234 238 233 234 241 231 
237 234 228 229 230 233 
240 237 247 254 241 234 
236 250 253 254 254 254 
239 243 251 254 254 250 
242 239 248 252 252 254 
254 254 254 254 254 254 
254 254 254 254 254 254 
254 254 254 254 254 254 
254 249 252 254 253 243 
249 254 254 254 252 254 
254 254 254 254 254 254 
254 253 246 249 254 250 
251 240 219 195 169 151 
143 141 139 149 165 173 
169 189 224 241 254 254 
254 243 240 254 254 254 
254 254 245 251 254 254 
254 254 254 254 254 254 
254 254 254 254 254 254 
254 254 254 240 217 221 
229 216 192 160 147 164 
205 239 241 233 233 237 
244 243 237 252 248 243 
237 234 236 248 241 241 
248 245 247 245 254 254 
254 254 254 253 254 254 
254 254 254 254 254 254 
254 254 253 242 234 246 
245 230 230 217 215 206 
186 167 148 141 125 124 
120 122 131 124 121 115 
119 119 122 135 139 157 
173 198 213 226 236 233 
234 230 230 238 233 222 
234 238 228 229 233 248 
249 241 241 245 251 254 
254 254 252 239 247 254 
254 252 248 235 241 254 
254 254 254 254 254 254 
254 254 254 254 254 252 
254 254 254 254 254 254 
254 254 246 254 252 254 
236 234 244 254 254 250 
250 254 254 254 254 254 
254 254 254 253 248 249 
248 244 238 226 205 194 
181 159 148 139 142 144 
162 171 181 197 221 240 
254 254 254 246 243 246 
253 254 254 253 254 250 
254 254 254 254 254 254 
254 254 254 254 254 254 
254 254 254 254 254 242 
225 229 224 210 182 152 
127 142 178 207 222 227 
232 241 252 247 231 239 
246 232 226 226 235 231 
237 237 234 241 234 228 
233 254 254 254 254 251 
243 244 254 254 254 254 
254 251 254 254 249 243 
237 233 235 224 212 203 
186 177 152 138 129 124 
117 105 111 118 125 117 
111 115 112 116 108 108 
109 128 155 175 195 212 
230 232 229 223 236 244 
238 228 231 244 232 222 
229 239 238 241 245 246 
240 243 254 254 245 232 
241 254 254 253 246 237 
239 247 252 254 244 248 
252 254 254 254 254 254 
254 253 254 254 254 254 
254 254 254 244 252 254 
254 248 242 239 244 247 
243 249 254 249 254 254 
254 254 253 254 254 253 
252 254 241 229 225 209 
190 179 174 164 142 140 
139 150 164 174 191 206 
226 238 254 254 254 251 
244 248 254 254 252 254 
254 254 254 254 254 254 
254 254 254 254 254 254 
254 254 254 254 254 254 
253 247 222 213 204 194 
173 137 112 128 157 165 
186 200 219 231 244 232 
212 206 219 224 214 210 
223 226 226 227 224 215 
220 211 219 238 254 254 
254 242 234 235 237 244 
248 239 233 228 240 238 
240 232 216 217 221 210 
188 162 164 143 127 116 
111 108 99 98 100 106 
109 105 100 104 125 127 
99 100 105 113 141 162 
185 191 213 217 218 228 
232 233 230 226 230 244 
242 238 230 232 240 232 
244 242 235 243 254 254 
251 230 243 253 254 254 
253 247 243 241 245 253 
246 244 246 247 252 254 
254 254 254 254 254 254 
254 254 254 254 254 254 
254 254 249 243 250 245 
251 245 253 254 254 254 
254 254 254 250 240 249 
254 254 248 247 229 228 
214 200 186 166 168 151 
150 142 147 153 166 173 
193 207 232 240 254 254 
245 244 244 254 254 254 
244 246 254 254 254 254 
254 254 254 254 254 254 
254 254 254 254 254 254 
254 254 254 254 236 204 
188 192 163 124 106 127 
139 149 164 178 182 207 
212 203 201 193 205 213 
195 183 193 196 199 200 
198 189 203 217 203 225 
236 239 227 223 217 218 
211 217 228 233 215 201 
213 220 218 200 188 183 
172 170 152 142 129 113 
109 110 101 98 91 89 
101 106 113 111 93 95 
125 131 112 98 100 110 
132 151 158 165 183 210 
224 225 229 229 234 233 
234 245 244 243 242 245 
238 233 246 245 245 237 
246 254 254 244 244 245 
254 254 254 254 245 244 
251 250 251 250 244 244 
254 254 254 254 254 254 
254 254 254 254 254 254 
254 254 254 254 249 245 
254 254 254 254 254 254 
254 254 254 254 254 254 
245 250 252 251 244 234 
229 215 216 203 183 161 
164 161 144 142 141 145 
159 180 186 208 225 241 
250 240 228 240 243 249 
254 254 244 246 254 254 
254 254 254 254 254 254 
254 254 254 254 254 254 
254 246 247 254 254 254 
232 198 191 193 153 124 
118 128 135 129 135 151 
166 172 179 173 164 177 
182 190 175 151 162 160 
166 167 159 163 181 194 
191 207 213 208 191 189 
194 199 193 187 202 209 
200 186 183 200 186 168 
157 150 150 142 142 129 
120 105 113 116 105 93 
98 97 114 128 127 122 
108 101 113 124 120 98 
91 112 134 137 143 143 
158 193 216 229 227 232 
243 237 227 243 242 239 
245 244 235 237 244 247 
249 243 247 254 254 254 
241 250 253 254 254 254 
254 254 254 254 254 253 
249 250 254 254 254 254 
254 254 254 254 254 254 
254 254 254 254 254 254 
249 248 254 254 254 254 
254 254 254 254 254 254 
254 254 245 242 241 239 
231 221 210 206 197 190 
170 164 165 158 147 140 
143 152 168 171 182 204 
208 229 254 235 219 234 
241 250 254 254 239 250 
254 254 254 254 254 253 
247 254 254 254 254 254 
254 254 254 245 249 254 
254 254 232 197 191 185 
150 123 129 136 125 121 
124 135 146 146 140 142 
146 148 160 163 148 139 
137 133 138 125 135 138 
150 175 171 169 183 176 
156 158 166 173 171 172 
181 180 166 162 165 169 
167 145 142 141 136 126 
133 137 131 125 122 121 
123 114 117 133 141 150 
143 136 127 112 102 114 
111 101 101 117 129 134 
132 126 136 163 205 223 
233 237 235 232 231 229 
234 238 241 238 236 241 
248 252 249 240 244 254 
254 254 245 238 251 254 
254 254 254 254 254 254 
254 252 246 251 254 254 
254 254 254 254 254 254 
254 254 254 254 254 254 
254 254 248 245 247 250 
252 254 254 251 248 254 
252 248 251 246 237 225 
234 233 214 200 197 183 
179 177 163 156 155 151 
152 151 147 147 168 179 
175 192 210 233 254 243 
231 233 235 248 254 242 
231 250 254 254 254 254 
254 245 236 242 253 254 
254 254 254 254 254 249 
242 248 249 253 223 192 
177 167 149 128 130 130 
114 105 118 140 142 134 
125 118 130 133 142 132 
136 126 127 137 126 119 
122 120 134 161 162 158 
154 159 144 135 149 155 
158 159 155 157 154 147 
146 151 135 132 129 131 
138 129 132 140 152 141 
143 144 138 143 152 178 
173 171 163 151 133 125 
113 117 116 118 125 127 
123 123 121 117 115 150 
191 222 240 237 233 229 
230 233 235 238 239 236 
237 246 249 254 246 238 
243 253 254 254 242 234 
252 254 252 254 254 254 
254 254 246 243 243 250 
254 254 254 254 253 250 
252 254 254 254 254 254 
251 254 254 254 246 237 
235 236 250 254 254 252 
254 250 244 232 230 229 
219 214 210 214 193 178 
162 152 146 148 152 141 
137 138 140 141 148 154 
161 181 181 199 219 242 
243 233 236 242 234 243 
254 242 237 254 254 254 
254 254 254 251 240 236 
254 254 254 254 254 254 
254 239 229 231 233 236 
213 179 158 150 138 122 
122 122 105 101 119 129 
137 131 111 109 120 118 
117 115 114 124 128 135 
131 123 115 111 126 150 
157 147 150 151 139 139 
145 145 144 144 144 140 
144 139 147 132 125 127 
137 149 144 148 156 152 
175 179 175 167 170 173 
193 206 202 194 186 170 
156 146 131 131 131 137 
138 140 121 121 121 120 
118 147 194 231 247 240 
235 224 226 239 236 247 
243 235 248 250 251 250 
234 228 234 249 254 254 
245 241 248 244 248 249 
254 254 254 244 237 237 
238 246 254 254 254 254 
247 239 243 254 254 254 
254 254 244 241 254 254 
253 229 228 235 251 254 
254 247 242 241 237 219 
214 209 195 185 185 179 
165 144 130 126 119 126 
142 130 121 123 126 139 
145 153 170 190 194 200 
227 245 231 224 218 221 
237 245 254 245 250 254 
254 254 254 254 254 252 
240 240 253 254 254 254 
254 254 254 245 239 224 
224 222 212 174 153 149 
138 118 113 106 104 104 
117 130 131 118 98 109 
124 117 99 101 102 118 
130 138 129 110 119 115 
128 144 144 140 143 158 
144 135 138 133 138 136 
132 126 131 129 135 133 
127 138 153 160 165 161 
171 190 205 209 207 192 
201 214 229 229 233 222 
208 190 184 178 160 158 
153 155 137 131 133 127 
132 135 128 155 196 227 
244 236 233 232 237 232 
240 246 242 240 244 247 
242 232 220 220 236 242 
253 254 254 251 244 253 
252 254 250 253 245 242 
239 231 226 240 247 246 
251 254 247 229 246 254 
254 254 253 240 235 236 
251 254 249 227 223 232 
246 241 243 231 220 220 
218 198 185 172 160 158 
152 153 138 127 122 114 
111 118 131 119 116 112 
123 144 145 161 179 203 
212 217 230 238 214 207 
201 201 215 243 254 252 
247 254 254 254 254 254 
254 252 235 229 254 254 
254 254 254 254 243 237 
228 210 202 211 209 170 
141 145 133 111 99 98 
109 113 117 117 116 117 
111 117 131 117 98 97 
93 115 134 142 122 108 
115 122 137 149 143 136 
143 152 131 127 135 139 
139 138 129 115 116 120 
134 137 150 155 170 181 
180 197 212 217 232 231 
221 214 227 240 245 245 
242 239 224 218 218 206 
189 181 172 160 148 131 
131 133 131 132 136 151 
183 211 235 237 234 239 
238 238 234 242 238 243 
242 250 247 236 221 221 
225 233 246 254 254 254 
254 254 254 254 254 250 
252 244 239 239 241 246 
254 253 248 252 243 241 
248 254 254 253 238 235 
238 240 249 243 227 220 
210 213 222 216 214 206 
198 196 198 177 156 136 
130 128 131 130 122 128 
126 112 112 114 127 126 
115 116 126 138 156 160 
179 203 227 233 230 239 
199 188 180 189 211 234 
243 246 242 248 251 251 
254 252 244 233 234 226 
243 254 254 254 254 251 
230 213 209 194 191 201 
195 167 143 131 123 103 
109 114 119 118 130 116 
115 119 111 114 124 118 
109 105 110 123 135 126 
114 105 109 116 130 146 
141 137 139 125 118 128 
135 133 139 133 114 103 
113 119 149 154 172 190 
198 208 225 230 241 241 
234 231 239 231 246 253 
253 249 248 244 238 242 
231 232 211 207 198 184 
151 145 140 149 134 131 
139 158 185 208 233 244 
250 251 244 242 238 235 
230 232 244 244 243 240 
224 226 228 220 235 254 
254 254 242 238 248 245 
251 254 254 243 245 241 
247 253 254 254 253 245 
248 243 245 245 237 235 
217 221 228 226 219 215 
204 195 194 181 178 179 
178 173 163 160 164 143 
118 108 107 110 114 113 
110 115 123 111 108 110 
120 131 132 129 139 149 
157 160 180 204 234 243 
243 252 176 179 173 192 
218 231 234 233 233 231 
238 240 245 250 251 228 
222 225 238 254 254 254 
254 244 211 196 182 171 
167 183 179 158 143 136 
117 123 126 130 135 133 
128 126 126 122 112 110 
113 124 117 118 117 120 
120 121 108 105 102 100 
116 125 134 137 137 123 
119 129 138 138 138 128 
114 115 124 148 173 195 
208 221 226 245 254 254 
254 241 240 244 238 246 
252 254 252 254 254 247 
244 243 234 234 232 227 
225 214 194 176 172 161 
152 144 155 165 195 224 
246 254 254 254 254 249 
246 245 236 235 239 240 
239 234 240 234 234 232 
236 254 254 254 237 230 
224 231 244 253 254 242 
236 238 231 236 240 240 
228 223 224 222 215 212 
211 202 184 189 192 185 
181 179 171 167 152 143 
141 140 144 140 141 131 
128 123 103 97 105 116 
113 105 103 110 119 119 
117 102 117 134 142 143 
151 163 162 168 187 212 
241 252 253 247 151 159 
176 185 203 214 223 230 
234 229 241 234 238 243 
246 224 214 220 235 251 
254 254 252 229 203 182 
178 162 159 166 171 150 
129 129 126 141 145 147 
141 136 133 132 122 119 
114 109 115 118 134 122 
116 114 108 103 113 106 
98 103 120 128 129 133 
133 122 123 126 131 137 
129 125 127 143 166 183 
207 221 237 246 250 254 
254 254 246 246 254 253 
254 243 251 254 254 254 
251 253 249 251 251 245 
238 243 238 237 224 204 
197 195 183 173 181 196 
228 246 254 254 254 254 
254 252 253 248 245 247 
240 228 233 240 247 245 
245 243 247 253 252 238 
212 209 220 218 226 233 
238 246 229 219 212 204 
207 194 197 187 193 186 
173 171 171 167 155 148 
145 143 143 154 152 131 
121 121 113 111 108 120 
120 113 103 104 108 104 
108 116 122 114 113 116 
122 130 121 110 115 140 
160 168 181 187 189 197 
209 236 254 254 254 245 
124 142 162 181 183 200 
202 205 218 238 234 222 
217 225 234 224 223 227 
229 247 251 247 238 211 
179 171 174 168 161 165 
163 150 126 121 126 141 
149 156 142 138 131 134 
125 128 125 125 127 125 
130 129 126 115 111 115 
105 107 110 117 131 146 
154 151 130 129 137 144 
142 139 140 147 155 174 
193 209 232 246 251 254 
254 254 254 254 254 253 
254 254 254 251 246 254 
254 254 254 246 242 245 
247 240 247 243 247 241 
228 224 206 211 226 207 
214 231 241 254 254 254 
254 254 254 254 249 251 
252 241 233 229 239 245 
248 254 254 247 247 249 
243 228 202 187 194 198 
201 203 216 222 205 193 
184 181 176 155 156 160 
164 163 152 150 151 152 
142 129 120 122 128 130 
133 118 107 114 111 103 
112 120 123 110 103 112 
124 121 120 132 140 138 
137 135 144 144 142 135 
133 156 183 188 195 211 
212 221 236 253 254 254 
254 252 121 125 150 162 
165 172 172 188 197 208 
204 195 191 207 211 215 
216 217 228 226 222 232 
230 201 168 161 171 177 
175 164 173 152 134 129 
131 142 148 158 150 147 
150 147 141 139 157 157 
158 147 136 131 132 131 
133 129 128 129 133 147 
178 179 185 179 160 155 
168 177 174 174 169 180 
196 201 209 230 241 252 
254 254 254 254 254 254 
254 247 253 254 254 254 
251 245 254 252 241 245 
251 254 254 251 248 245 
250 241 236 230 226 233 
248 239 232 241 246 254 
254 254 254 254 254 254 
254 254 254 241 237 233 
242 248 251 252 253 251 
253 244 227 204 176 160 
165 174 177 167 177 185 
166 157 153 153 155 136 
134 141 148 157 148 136 
142 156 146 123 116 115 
119 122 127 116 116 121 
123 113 128 136 133 130 
134 134 164 159 160 165 
174 185 181 172 163 167 
173 170 174 192 221 230 
235 239 241 242 254 254 
254 254 254 254 127 120 
137 158 167 155 165 172 
175 175 168 164 169 178 
193 192 198 199 205 201 
199 208 206 189 170 169 
176 168 161 173 175 158 
144 140 145 156 159 173 
175 156 165 178 172 182 
178 207 192 173 164 155 
164 162 163 166 167 168 
170 190 209 221 206 210 
193 194 208 227 218 205 
203 213 224 226 236 233 
249 251 252 248 254 254 
254 254 243 242 244 254 
254 254 254 249 246 251 
250 238 247 254 244 248 
244 240 241 250 244 240 
254 251 254 251 242 248 
248 254 254 254 254 254 
254 254 254 254 254 253 
242 237 239 239 241 245 
240 240 237 217 199 177 
135 141 147 156 150 145 
140 146 146 140 136 135 
134 126 116 125 140 142 
140 134 146 154 142 125 
124 125 129 131 130 131 
133 139 141 147 155 160 
159 170 169 178 214 209 
199 199 211 218 216 211 
211 215 220 221 229 246 
254 254 254 254 254 254 
254 254 254 254 254 254 
135 131 141 157 157 157 
157 164 161 151 151 149 
155 168 180 183 177 176 
174 177 186 191 196 185 
173 169 161 149 142 170 
174 179 160 160 164 180 
188 201 202 198 203 225 
220 215 212 237 218 200 
193 191 196 201 207 202 
201 219 212 226 243 241 
236 229 222 222 246 247 
242 232 224 231 236 244 
241 254 254 254 254 251 
253 254 254 249 239 235 
241 251 254 254 252 240 
245 254 252 251 253 254 
254 252 247 244 249 249 
254 254 254 254 251 249 
240 249 251 249 254 254 
254 254 254 254 254 254 
254 247 239 243 240 233 
231 238 233 232 227 208 
173 140 135 132 134 128 
129 125 124 134 130 128 
121 120 115 114 109 111 
128 134 128 126 132 141 
142 129 133 137 143 150 
145 143 148 164 170 171 
167 187 193 199 208 221 
244 245 230 226 235 234 
235 245 254 254 254 254 
254 254 254 254 254 254 
254 254 254 254 254 254 
254 254 139 137 144 155 
151 151 145 143 140 142 
146 144 145 158 162 161 
171 157 160 174 183 181 
184 179 175 162 151 150 
171 188 208 201 186 190 
193 202 209 215 226 230 
240 254 252 246 240 254 
245 232 234 221 221 234 
235 226 229 233 237 236 
243 251 245 250 243 247 
254 254 249 242 237 232 
244 242 245 254 254 254 
254 247 254 254 254 254 
244 239 235 241 249 254 
250 236 235 240 247 248 
253 254 253 245 246 246 
252 254 254 254 254 254 
254 252 252 245 244 246 
246 254 254 254 254 254 
254 249 250 247 243 244 
239 233 234 237 237 243 
232 198 154 133 130 131 
123 117 115 112 116 127 
134 121 116 116 116 112 
112 113 133 142 143 131 
130 140 148 150 151 157 
169 178 180 179 176 194 
199 198 211 212 221 230 
235 232 250 246 241 242 
246 243 243 254 254 254 
254 254 254 254 254 254 
254 254 254 254 254 254 
254 254 254 254 129 141 
148 160 155 149 143 134 
132 150 148 142 134 155 
142 140 142 141 150 168 
177 182 182 170 163 156 
154 186 216 222 230 224 
215 216 219 224 224 237 
242 245 254 254 254 254 
244 248 248 254 254 250 
237 240 250 246 243 251 
232 233 250 254 254 254 
254 254 254 254 254 245 
239 248 248 252 247 254 
254 254 254 252 247 254 
254 248 236 229 233 243 
254 254 254 244 227 242 
244 245 254 254 240 236 
239 246 254 254 254 254 
249 249 254 248 254 246 
236 231 240 252 254 254 