# vtk DataFile Version 3.0
VTK File Generated by Insight Segmentation and Registration Toolkit (ITK)
ASCII
DATASET STRUCTURED_POINTS
DIMENSIONS 6 6 6
SPACING 1 1 1
ORIGIN 0.0 0.0 0.0
POINT_DATA 216
SCALARS scalars int 1
LOOKUP_TABLE default 
255 255 255 255 255 255 
255 255 255 255 255 255 
255 255 255 255 255 255 
255 255 255 255 255 255 
255 255 255 255 255 255 
255 255 255 255 255 255 
255 255 255 255 255 255 
255 0 0 0 0 255
255 0 0 0 0 255
255 0 0 0 0 255
255 0 0 0 0 255
255 255 255 255 255 255 
255 255 255 255 255 255 
255 0 0 0 0 255
255 0 0 0 0 255
255 0 0 0 0 255
255 0 0 0 0 255
255 255 255 255 255 255 
255 255 255 255 255 255 
255 0 0 0 0 255
255 0 0 0 0 255
255 0 0 0 0 255
255 0 0 0 0 255
255 255 255 255 255 255 
255 255 255 255 255 255 
255 0 0 0 0 255
255 0 0 0 0 255
255 0 0 0 0 255
255 0 0 0 0 255
255 255 255 255 255 255 
255 255 255 255 255 255 
255 255 255 255 255 255 
255 255 255 255 255 255 
255 255 255 255 255 255 
255 255 255 255 255 255 
255 255 255 255 255 255 
